% Model:              hydro_005.mph
% Version:            COMSOL 5.4.0.225
% Date:               Apr 16 2025, 10:51
% Dimension:          3
% Nodes:              3184
% Expressions:        4
% Description:        Velocity field, x component, Velocity field, y component, Velocity field, z component, Pressure
% Length unit:        m
% x                       y                        z                        u2 (m/s) @ t=1           v2 (m/s) @ t=1           w2 (m/s) @ t=1           p2 (Pa) @ t=1
4.284831859464078E-4      4.284831859464078E-4     5.000000000000002E-4     -2.0099890152760646E-10  -2.0100490487932964E-10  -1.2181071773248165E-9   0.10711537824830077
4.460027191716477E-4      4.460027191716477E-4     4.3398144904403135E-4    -2.1885057394327726E-10  -2.1885057394327726E-10  -1.352369999481694E-9    0.10711537360919536
5.0E-4                    5.0E-4                   5.0E-4                   -2.6215156362764756E-10  -2.621560595640278E-10   -1.0485993317936539E-9   0.10711539707819379
5.0E-4                    4.0E-4                   5.0E-4                   -3.1757343664590684E-10  -1.2447212652080717E-10  -1.1559211116375974E-9   0.1071153881262641
5.0E-4                    4.381093551845703E-4     4.3505298641700093E-4    -2.9543197777287665E-10  -1.7617826360945002E-10  -1.2897444300798711E-9   0.10711538066887362
5.0E-4                    5.0E-4                   3.999999999999999E-4     -2.5404870442457583E-10  -2.5405013513280607E-10  -1.3156686124536444E-9   0.10711537806363877
5.0E-4                    4.0E-4                   -5.0E-4                  3.175659852039468E-10    1.2466022955108702E-10   -1.1559218789728745E-9   0.10711468204651192
5.0E-4                    4.252158039667247E-4     -4.337401303557395E-4    3.0335088053080204E-10   1.5806229193008367E-10   -1.3059947567152485E-9   0.107114685847467
5.0E-4                    5.0E-4                   -5.0E-4                  2.6215878491777615E-10   2.6216899166334925E-10   -1.0485965097645342E-9   0.10711466601677028
4.284831859464082E-4      4.284831859464082E-4     -5.000000000000001E-4    2.006865893768492E-10    2.0068973180141312E-10   -1.2181110138012345E-9   0.10711468766857482
4.5309361592409954E-4     4.5309361592409954E-4    -4.2538763688020965E-4   2.2366580295345085E-10   2.2366580295345085E-10   -1.3578331581700148E-9   0.1071146907267101
4.999999999999999E-4      4.999999999999999E-4     -3.9999999999999996E-4   2.5405909025578516E-10   2.5406952426187803E-10   -1.3155381364639102E-9   0.10711468598177976
5.0E-4                    3.5003748668052936E-4    -4.25736105805446E-4     3.518184246143229E-10    6.788874994287094E-11    -1.399934041393049E-9    0.10711468555515156
4.4620085310719015E-4     3.137358421524109E-4     -4.336306376512944E-4    2.9448764181790147E-10   6.189569400945839E-11    -1.5094169748876246E-9   0.10711469276522777
5.0E-4                    2.5810153608046854E-4    -4.197876623481287E-4    4.1319377321282413E-10   -1.2172705845203145E-11  -1.4889220654997896E-9   0.10711467753837331
5.0E-4                    3.0000000000000003E-4    -5.0E-4                  3.7572768631101694E-10   1.2613555137484022E-11   -1.2624107933125184E-9   0.10711466876661015
5.0E-4                    3.50842581849203E-4      4.109696674237747E-4     -3.507587044475535E-10   -6.844925414496543E-11   -1.4356164269526665E-9   0.10711537517003265
4.3096488968835244E-4     3.456868997681287E-4     4.368490384700072E-4     -2.5488797304762267E-10  -1.0261658680847373E-10  -1.490187285344053E-9    0.10711536758249762
5.0E-4                    3.0000000000000003E-4    5.0E-4                   -3.7573364958569204E-10  -1.2123913325805385E-11  -1.2624195618080741E-9   0.10711539650522739
4.2875957623220737E-4     3.2985109229652327E-4    5.0E-4                   -2.465243212523786E-10   -7.64838910088088E-11    -1.350554335119707E-9    0.10711537535067327
4.407239407507564E-4      2.5594384323751547E-4    5.0E-4                   -2.94616551920709E-10    -5.596609614931818E-12   -1.4218214893138628E-9   0.10711538874707192
4.017304278694002E-4      2.4062409637865166E-4    4.48724457417114E-4      -2.5204346963864593E-10  -1.9705174799460138E-11  -1.6442378009391298E-9   0.10711537434782924
3.664457701685484E-4      2.6244601400525014E-4    5.0E-4                   -1.6587932636518883E-10  -3.0013213417022015E-11  -1.5699210099941707E-9   0.10711538314018625
4.152455649642559E-4      1.7366746519827627E-4    5.0E-4                   -2.69313837092394E-10    2.4965790709479754E-11   -1.5716236797760328E-9   0.10711539658014474
3.569663718928157E-4      3.569663718928157E-4     5.000000000000002E-4     -1.3317582911369925E-10  -1.3317199668350237E-10  -1.4332460565226764E-9   0.10711537321104157
5.0E-4                    4.2782582350684107E-4    3.508403956938639E-4     -2.8809102786777134E-10  -1.535452566755528E-10   -1.514157857140127E-9    0.10711535296187151
4.477655460227702E-4      3.660258887818761E-4     3.76326031267393E-4      -2.669868399290536E-10   -1.1757019631849579E-10  -1.5908129202663834E-9   0.10711535077504179
3.9012267287664857E-4     3.9012267287664857E-4    4.249326754975482E-4     -1.7778632853163409E-10  -1.7778632853163409E-10  -1.5250263299598657E-9   0.10711536287236453
4.349719487949729E-4      4.349719487949729E-4     3.4318686275102735E-4    -2.022972458245271E-10   -2.022972458245271E-10   -1.6101599272948876E-9   0.10711533937479632
5.0E-4                    5.0E-4                   2.9999999999999987E-4    -2.254295499432493E-10   -2.2543101519360655E-10  -1.562336106481889E-9    0.10711533256197783
5.0E-4                    4.194356076650545E-4     2.558191747270226E-4     -2.5293612192922144E-10  -1.1883805851000522E-10  -1.7374990028742257E-9   0.10711529555788736
4.2422220170270535E-4     3.275870760599636E-4     -5.0E-4                  2.4011761205342386E-10   7.613717810669436E-11    -1.36154679327302E-9     0.10711468645441745
4.408489240250296E-4      2.579071236245714E-4     -5.0E-4                  2.943629151062105E-10    6.965768288990038E-12    -1.419225633173258E-9    0.10711467695352059
3.924017062143803E-4      2.774341976242924E-4     -4.415251694971428E-4    2.275366460512565E-10    5.187712816994113E-11    -1.6342596774241444E-9   0.1071146967804609
5.0E-4                    4.108952010295759E-4     -3.4798147126704267E-4   2.987139426029216E-10    1.325750748320907E-10    -1.5376616551977144E-9   0.10711471503937074
3.918652442635573E-4      3.918652442635573E-4     -4.0886581212218814E-4   1.8008372016878632E-10   1.8008372016878632E-10   -1.5611561721454477E-9   0.10711470924780733
3.5696637189281614E-4     3.5696637189281614E-4    -5.0E-4                  1.3362364927724432E-10   1.336164136743455E-10    -1.4332688579643563E-9   0.10711468973622897
4.478806150554797E-4      4.478806150554797E-4     -3.4879307635865434E-4   2.1044135820464538E-10   2.1044135820464538E-10   -1.5648131996295512E-9   0.10711472070194715
4.999999999999999E-4      4.999999999999999E-4     -3.0E-4                  2.2543613404191668E-10   2.2544359147859242E-10   -1.5630121911275427E-9   0.10711473114982412
4.409607607419202E-4      3.45648872084438E-4      -3.202601061745802E-4    2.612033652908987E-10    9.681649335630693E-11    -1.7535904365103231E-9   0.1071147406433184
5.0E-4                    3.093762226850356E-4     -3.413488480654627E-4    3.6990212575058125E-10   2.630525396625215E-11    -1.62955361660151E-9     0.10711471193090631
5.0E-4                    3.447943116377382E-4     -2.7475235388273455E-4   3.158630296484814E-10    5.021534811238215E-11    -1.751286538690308E-9    0.10711475478103014
4.17062691147291E-4       2.9611345918752527E-4    -3.8305033899428567E-4   2.6519773562553256E-10   6.538841496557254E-11    -1.702392641532278E-9    0.10711471565006038
5.0E-4                    4.203875872079553E-4     -2.4216284674889903E-4   2.4389121262871256E-10   1.1540288376891759E-10   -1.7643034656154832E-9   0.10711477860920059
5.0E-4                    1.5591347148917323E-4    4.2889718705401157E-4    -4.708372758674441E-10   4.500244421472351E-11    -1.5319383148577438E-9   0.10711540620278681
4.999999999999999E-4      9.999999999999996E-5     4.999999999999999E-4     -4.675248784397204E-10   4.342666915474495E-11    -1.4212267056739445E-9   0.10711542769920195
5.0E-4                    1.9999999999999998E-4    5.0E-4                   -4.291000001720648E-10   4.565858816243802E-11    -1.3559130363039786E-9   0.10711541145443158
4.534408546041302E-4      1.0129001949465027E-4    4.5847958433517755E-4    -3.851450108904981E-10   2.8331629278411682E-11   -1.6168789705323365E-9   0.10711540554390193
4.3020858399132254E-4     6.445042553423492E-5     5.0E-4                   -3.1549885475649293E-10  2.2511357584976242E-11   -1.6125820318833937E-9   0.10711541191082574
5.0E-4                    7.150491480916309E-5     4.364694225064825E-4     -4.99691525063919E-10    3.135645537651827E-11    -1.5487598556278425E-9   0.10711541844137452
5.0E-4                    0                        5.0E-4                   -4.816171787953225E-10   -5.5934158923646295E-15  -1.4448000782150869E-9   0.10711543226524667
3.524137212648716E-4      8.01313138055385E-5      5.0E-4                   -1.4974094695260167E-10  2.260766294009687E-11    -1.8290891522261576E-9   0.10711540710472935
4.068817092082605E-4      1.0258003898930057E-4    4.1695916867035525E-4    -3.1025361703537355E-10  1.4788970558094072E-11   -1.8174989337957194E-9   0.10711537984490459
3.998270444549594E-4      0                        4.999999999999999E-4     -2.491649141922297E-10   -7.255627519928501E-15   -1.7128005881951265E-9   0.10711541135050594
3.456444581705141E-4      7.607067792283649E-5     4.3815743185715366E-4    -1.887789895838285E-10   1.0753758407850059E-11   -1.956784003875885E-9    0.10711538253694823
3.615650796254264E-4      1.418021230927283E-4     4.2002292739801313E-4    -2.2066900032581382E-10  4.985548882236723E-12    -1.8999353119692308E-9   0.10711537054857613
3.071046113178577E-4      1.729254135885536E-4     5.0E-4                   -7.863882858583877E-11   1.8953799042306255E-11   -1.8572123163135768E-9   0.10711539900635077
3.162484500425924E-4      1.81024207196156E-4      4.2308668612567107E-4    -1.4454546650362513E-10  -1.2125904398863957E-11  -1.961064895073844E-9    0.10711536906546157
2.8544955783922345E-4     2.8544955783922345E-4    5.000000000000002E-4     -5.764379391166583E-11   -5.7588390310564973E-11  -1.7015554603660331E-9   0.10711538337972216
4.3136845749402206E-4     1.9060891050448056E-4    4.1317305094411977E-4    -3.3149178210123705E-10  8.581181221102753E-12    -1.70532112364588E-9     0.10711537468585601
4.3136845749402206E-4     2.8807346568449543E-4    4.042092911290014E-4     -2.887112483855826E-10   -4.9560454621363224E-11  -1.6349350946379266E-9   0.10711536093350783
5.0E-4                    2.482502536468875E-4     4.228368577448711E-4     -4.192842589360643E-10   1.7948254291268948E-11   -1.4892671986298263E-9   0.10711538991605306
5.0E-4                    2.7433270053110845E-4    3.492145728098862E-4     -3.9766629357935123E-10  -6.665214479619202E-13   -1.633630947141251E-9    0.1071153580288305
5.0E-4                    1.968552691954866E-4     3.4498745180224E-4       -4.512099061312252E-10   3.559359896714319E-11    -1.6767483623022903E-9   0.10711536956224563
5.0E-4                    3.418799099446287E-4     3.035163612481533E-4     -3.32385207936379E-10    -5.163740217261002E-11   -1.6918662526780263E-9   0.10711532911286181
4.4322438008168914E-4     2.4309003291594108E-4    -4.349622635673203E-4    3.2458382754775755E-10   8.041624780875337E-12    -1.5850330430815869E-9   0.10711468683891254
5.0E-4                    1.9999999999999998E-4    -5.0E-4                  4.291009569180361E-10    -4.503697429041919E-11   -1.3559001259754747E-9   0.10711465079379333
5.0E-4                    2.3082086812797575E-4    -3.468187356484975E-4    4.2845912068839997E-10   -2.4270486191185163E-11  -1.6606944513960651E-9   0.10711470049670391
5.0E-4                    1.5630940875158738E-4    -4.079693212137022E-4    4.74616493147995E-10     -4.300711541199996E-11   -1.5717540269927926E-9   0.10711466557562965
3.627369149880441E-4      2.2530434951978788E-4    3.97448914834228E-4      -2.1229126652912096E-10  -3.284368564919002E-11   -1.8570106479867524E-9   0.1071153526307701
3.212459746331726E-4      3.212459746331726E-4     4.158800616783913E-4     -1.2492038512054188E-10  -1.2492038512054188E-10  -1.758755797373272E-9    0.10711535300566165
3.941536715960719E-4      3.2250617569130863E-4    3.6985112750251585E-4    -2.203049286629859E-10   -1.0206924348212754E-10  -1.7429287161817864E-9   0.10711533939581928
4.40182802376719E-4       4.40182802376719E-4      2.40021136498014E-4      -1.701144509523158E-10   -1.7011445095231576E-10  -1.826619549467809E-9    0.10711527530064673
5.0E-4                    5.0E-4                   1.9999999999999996E-4    -1.7164131880757794E-10  -1.7164616245177443E-10  -1.7719957636505172E-9   0.10711525645602965
5.0E-4                    4.1673210158820997E-4    1.546864038982848E-4     -1.7592490233556745E-10  -7.629964535452991E-11   -1.9210417408822064E-9   0.10711520710400178
4.3642885297617514E-4     3.4104341546271395E-4    2.941410146132674E-4     -2.5084603404333014E-10  -9.173755183082906E-11   -1.8219906376997555E-9   0.10711530658516658
5.0E-4                    3.336147770831777E-4     2.0414026155861605E-4    -2.7177937353960666E-10  -2.9397676184863234E-11  -1.890647903070642E-9    0.10711525528848444
4.33460511494354E-4       3.6757531542489955E-4    2.1552461096677742E-4    -1.9289519831403065E-10  -9.801081303092698E-11   -1.956820658083188E-9    0.10711524951133145
3.5693888569812173E-4     3.5693888569812173E-4    3.354929638760304E-4     -1.5675631936504247E-10  -1.5675631936504247E-10  -1.8326824234936397E-9   0.10711532079830065
3.8887808511270773E-4     3.8887808511270773E-4    2.642132287078183E-4     -1.5927746992354307E-10  -1.5927746992354307E-10  -1.9002457797356097E-9   0.10711528287915263
2.996540889099189E-4      0                        5.0E-4                   -5.3829893955649626E-11  -1.0021431911853278E-14  -2.0280972741418675E-9   0.10711542239737373
2.68498777025502E-4       7.914764130455051E-5     5.0E-4                   -1.2923783695894963E-11  2.771835218192624E-11    -2.093560096746995E-9    0.10711542786660304
4.070972950586481E-4      1.6252522171982632E-4    -5.0E-4                  2.552396365910974E-10    -2.6479395020364158E-11  -1.603440403487922E-9    0.10711467002475873
3.677407212814696E-4      2.5875493606105954E-4    -5.0E-4                  1.693223430741212E-10    2.616647654729023E-11    -1.5728344764635296E-9   0.10711468216049602
3.864487601633783E-4      2.2807852975141363E-4    -4.5013686478651184E-4   2.305151866897966E-10    1.6184161275630808E-11   -1.6894386323209476E-9   0.10711469012112883
4.2865238910096994E-4     6.333673962786098E-5     -5.0E-4                  3.1252407478797063E-10   -2.1437087185935805E-11  -1.6172944964664913E-9   0.10711465677334787
4.1091869835318737E-4     1.3061314172035506E-4    -4.3702781320922423E-4   3.0265257645797607E-10   -1.771696195639539E-11   -1.75094801028741E-9     0.10711468081420933
4.999999999999999E-4      9.999999999999996E-5     -4.999999999999999E-4    4.675305260987425E-10    -4.371312713537788E-11   -1.4211903380556216E-9   0.10711463430637544
3.149458660596683E-4      3.149458660596683E-4     -4.299566910382262E-4    1.1562811253193473E-10   1.1562811253193473E-10   -1.747567374442262E-9    0.10711470551006054
2.854495578392242E-4      2.854495578392242E-4     -5.0E-4                  5.724694246274282E-11    5.720259900360234E-11    -1.70151176052499E-9     0.10711467984927626
3.249536939312354E-4      2.2107635612947566E-4    -4.1300156941109946E-4   1.5467934631706003E-10   3.546580426105683E-11    -1.9097546052617043E-9   0.10711470519192458
4.290811811015985E-4      2.520956618270085E-4     -3.2454715213007455E-4   3.0209788475526063E-10   2.9063803891426773E-11   -1.8474650409563412E-9   0.10711473774222599
5.0E-4                    2.5649372467626485E-4    -2.5848373346804314E-4   3.7195816164789903E-10   -1.3944584313681276E-11  -1.8240553875631095E-9   0.1071147570757697
3.7100819253926316E-4     2.5859490765850045E-4    -3.9802595420269254E-4   2.133213529518278E-10    5.27160327278634E-11     -1.7990985306400924E-9   0.10711471263928195
3.3412538229458195E-4     3.3412538229458195E-4    -3.4631301564044256E-4   1.4286993929300466E-10   1.4286993929300466E-10   -1.874145239097993E-9    0.10711474140453783
4.3965936226234335E-4     4.3965936226234335E-4    -2.4918672234606993E-4   1.739510080512629E-10    1.739510080512629E-10    -1.8100250191025596E-9   0.10711478277407262
5.0E-4                    5.0E-4                   -1.9999999999999996E-4   1.716373606361444E-10    1.7163887924931644E-10   -1.7720258234759479E-9   0.10711480976747925
3.8192152148384034E-4     3.8192152148384034E-4    -2.9917136428369776E-4   1.6520035517553151E-10   1.6520035517553151E-10   -1.845214023463252E-9    0.10711475966286163
4.376943940482159E-4      3.159412563863483E-4     -2.3138110454664455E-4   2.379415616905451E-10    5.992028214000888E-11    -1.9651194829307916E-9   0.10711480199150224
5.0E-4                    3.3608594996465064E-4    -1.944719045230945E-4    2.6103432597086567E-10   2.998930634428355E-11    -1.905932441920956E-9    0.10711481812030857
5.0E-4                    2.548305067751437E-4     -1.5391524955965543E-4   2.6599179003982057E-10   -1.482852372676414E-11   -1.996286250557333E-9    0.10711484972373753
3.5816236220319705E-4     2.733704555260412E-4     -3.0227556861165154E-4   1.940537773893615E-10    7.70116936880906E-11     -2.0039720276489693E-9   0.10711476450026297
4.350904260787523E-4      2.4290933979666525E-4    -2.6531191885066624E-4   2.9584057031846773E-10   2.0018830580568212E-11   -1.957521664910666E-9    0.10711477293653898
4.423149941655374E-4      4.423149941655374E-4     1.4468761924797623E-4    -1.1493614059130404E-10  -1.1493614059130404E-10  -1.9833943736378493E-9   0.10711519124646439
5.0E-4                    5.0E-4                   1.0000000000000002E-4    -9.350649275649663E-11   -9.351113867197919E-11   -1.917053429919703E-9    0.10711515287554683
5.0E-4                    4.192579190073627E-4     5.3571799802736626E-5    -6.50142766297113E-11    -2.8358255955660396E-11  -2.0222096642159397E-9   0.1071150960982173
5.0E-4                    3.376516294172293E-4     -9.818555382693328E-5    1.4638314951980228E-10   1.4751032862118197E-11   -2.0353786079436003E-9   0.10711491722612966
4.386682079515963E-4      3.567111829339216E-4     -1.5032432366370163E-4   1.5578570904935653E-10   6.43252957528317E-11     -2.0607098627420977E-9   0.10711487275678834
5.0E-4                    4.190207170585277E-4     -1.4547602865741475E-4   1.6592114156109697E-10   7.464490290563821E-11    -1.931750724053352E-9    0.1071148679804346
4.3810531522555475E-4     4.3810531522555475E-4    -1.538562764126365E-4    1.2015389445959308E-10   1.2015389445959308E-10   -1.980146217988887E-9    0.107114865899499
5.0E-4                    5.0E-4                   -9.999999999999996E-5    9.349329923251334E-11    9.34913166398762E-11     -1.9175945750347536E-9   0.10711491301299034
4.392819846801198E-4      4.392819846801198E-4     -5.398157017123537E-5    4.50220464571194E-11     4.50220464571194E-11     -2.077638117108775E-9    0.10711497095456958
5.0E-4                    4.176703454051184E-4     -4.7587235473398996E-5   5.813498158535541E-11    2.4813770062177882E-11   -2.0262774514719226E-9   0.10711497673856993
5.0E-4                    5.0E-4                   8.470329472543003E-21    -4.1490851313085276E-15  -6.210994910301751E-15   -1.9697729926030888E-9   0.10711503189693267
4.4108184788049944E-4     3.5942856488823766E-4    -1.8567429045731657E-6   1.9120478443177996E-12   7.381716479624521E-13    -2.1605382861088705E-9   0.10711503003523376
5.0E-4                    3.366934340154764E-4     1.508125474583267E-6     -2.3423112523932365E-12  -5.702623646954265E-13   -2.0826212329299423E-9   0.10711503360264961
4.4181169501245125E-4     4.4181169501245125E-4    4.730666494596106E-5     -3.974575450706995E-11   -3.974575450706995E-11   -2.0754190750907826E-9   0.1071150864426843
5.0E-4                    8.984970713212044E-5     3.4893718204974E-4       -5.076278224015762E-10   3.25202202131103E-11     -1.69555088443728E-9     0.1071153877448765
4.425008037937373E-4      1.222925408354943E-4     3.14853901793265E-4      -3.8267557786864525E-10  1.60561719332447E-11     -1.9074775542782656E-9   0.10711533857440353
4.2184869060583955E-4     0                        4.343805594047924E-4     -3.4059281425519757E-10  0                        -1.7722527607293901E-9   0.10711539323312631
4.5116511339415166E-4     7.434870865235652E-5     3.9171743642929356E-4    -4.1082147751585343E-10  1.851550199455545E-11    -1.75919168081192E-9     0.10711538386599867
5.0E-4                    0                        3.999999999999999E-4     -5.189108056578803E-10   -1.221934889660477E-14   -1.6176984197753978E-9   0.1071154104218064
2.6975998509714074E-4     1.3674406487252408E-4    4.48724457417114E-4      -6.911505275709793E-11   9.584068736888945E-12    -2.0890945774900317E-9   0.10711539008513606
2.257565517777606E-4      1.398329665756101E-4     5.0E-4                   2.458735713407854E-11    4.047737291072162E-11    -2.141404549010653E-9    0.10711543081453699
2.1393274378563116E-4     2.1393274378563116E-4    5.000000000000001E-4     1.6444519055696618E-11   1.6473020905810302E-11   -2.018603574371073E-9    0.1071154152928998
3.437272035902718E-4      0                        4.2885075483363103E-4    -1.9356395594339452E-10  0                        -1.996874284286723E-9    0.10711538303208334
3.3887519507615655E-4     7.201004204013449E-5     3.763148637143072E-4     -2.1102815900878833E-10  2.140880227804987E-12    -2.0774547534153952E-9   0.10711535130730486
2.2459070979284333E-4     7.092833363202009E-5     4.5283213853825494E-4    -1.4023877579574132E-11  1.5616480852526745E-11   -2.272149178719596E-9    0.10711540897966242
2.7542016336400984E-4     6.682758158471905E-5     4.0566427707650976E-4    -1.0572445370159158E-10  3.6051353520887715E-12   -2.1934229052859527E-9   0.10711536967786801
2.5043481088843236E-4     2.5043481088843236E-4    4.122863497741955E-4     -6.828750533839808E-11   -6.828750533839808E-11   -2.0106866433704766E-9   0.10711535798216733
4.302229820730343E-4      2.2871361467089753E-4    3.234313327757798E-4     -3.1605630846252663E-10  -1.5800845338054072E-11  -1.8645737492445006E-9   0.10711532931052402
5.0E-4                    1.5826925045357173E-4    2.736950976197339E-4     -4.502313089246502E-10   4.0017073579558815E-11   -1.8184306295485993E-9   0.10711533132442487
5.0E-4                    2.4783144836310875E-4    2.5599294887934275E-4    -3.7668881552452873E-10  1.7716662217010178E-11   -1.8310837601977624E-9   0.10711530747550936
3.587054465746112E-4      1.4961396626144658E-4    -4.4037989839895947E-4   2.0332680300712126E-10   -8.007683945747643E-12   -1.861202622402734E-9    0.10711468630554015
3.440341549667596E-4      7.202508811943435E-5     -5.0E-4                  1.3474296977704498E-10   -2.1973009045294602E-11  -1.8601945045315129E-9   0.10711465560844452
4.220885961485896E-4      6.530657086017752E-5     -4.319170032596037E-4    3.382084187784E-10       -1.5058320352584402E-11  -1.7651526826689578E-9   0.1071146745657486
5.0E-4                    0                        -5.0E-4                  4.816237574909407E-10    -1.0487279966355345E-14  -1.4447888437898598E-9   0.10711463137426906
3.9982704445495974E-4     0                        -4.999999999999999E-4    2.4990603487159726E-10   1.3689613304882951E-14   -1.7128135028690502E-9   0.10711465339604823
5.0E-4                    6.636630951916496E-5     -4.235436936819453E-4    5.048513268682755E-10    -2.8045995606097518E-11  -1.5729751013137785E-9   0.10711465138821706
4.332584939439919E-4      0                        -4.2680619330998326E-4   3.68334560860232E-10     0                        -1.7539407749647146E-9   0.10711467258445127
4.5257839952264357E-4     1.7911724836657225E-4    -3.5080034047611986E-4   3.801333178540475E-10    -1.4704418178450933E-11  -1.7898124084849327E-9   0.1071147098676263
5.0E-4                    1.6083237329137678E-4    -3.0132695137921595E-4   4.621991894478566E-10    -4.0532825632344575E-11  -1.7674537743355414E-9   0.107114712818338
5.0E-4                    7.382622258728539E-5     -3.4822032410492215E-4   5.129302296398652E-10    -2.9317759428368464E-11  -1.7020914452483219E-9   0.10711467773182608
4.999999999999999E-4      0                        -3.9999999999999996E-4   5.188806799007787E-10    -2.863198978999624E-15   -1.6189362453321626E-9   0.10711465471657916
4.410996710559061E-4      1.8672395102443858E-4    -2.797825364810382E-4    3.4115781959396097E-10   -4.7692267526757916E-12  -1.948121832486361E-9    0.10711475625982274
5.0E-4                    1.7302999161327101E-4    -1.998409669011222E-4    3.7619444155061013E-10   -3.596261745410442E-11   -1.9397337785737427E-9   0.10711479427056016
4.147401016477265E-4      9.870106172088385E-5     -3.7405562641844845E-4   3.384539773698558E-10    -1.1883453715701145E-11  -1.8796599042321965E-9   0.10711470279137444
4.1097515536740964E-4     1.2130806404341082E-4    2.6664341340512383E-4    -3.1496239859169803E-10  3.999736101114931E-12    -2.0682610835077565E-9   0.10711529381537424
5.0E-4                    8.644076491376948E-5     2.445992016617765E-4     -4.660662957704188E-10   2.98071872519424E-11     -1.873001053021892E-9    0.10711531878210791
3.600288888021242E-4      2.608957202415978E-4     3.247080902754292E-4     -2.038327609106109E-10   -6.674675968785822E-11   -1.9700148015008537E-9   0.10711531406393186
4.176287813836497E-4      2.615468708430103E-4     2.4992316262972543E-4    -2.554218312243086E-10   -3.834508452108879E-11   -2.0072931440751855E-9   0.10711527438684275
5.0E-4                    2.50671101685061E-4      1.5410610676044837E-4    -2.687603705010845E-10   1.5986914226844363E-11   -1.9973620716457277E-9   0.10711521375107579
2.9054374770047856E-4     2.9054374770047856E-4    3.273599793116873E-4     -1.1654370235518554E-10  -1.1654370235518554E-10  -2.0396561882185195E-9   0.10711531161417277
3.1718312829371844E-4     1.9068654029295455E-4    3.5587200002954513E-4    -1.687153546776686E-10   -3.3101047229480185E-11  -2.0690035328510922E-9   0.10711533027940857
4.4351031949141427E-4     3.6123993357482684E-4    1.4698209109380728E-4    -1.5434513814025218E-10  -6.357433994260273E-11   -2.054678078143809E-9    0.10711518882540375
5.0E-4                    3.3545922816682503E-4    1.0280678620670769E-4    -1.5362592984470535E-10  -1.468666847636699E-11   -2.0306260992088688E-9   0.10711515346270117
4.145906916019751E-4      2.8992624244450564E-4    1.9695499553229682E-4    -2.0460339746081732E-10  -4.898494734253121E-11   -2.0820598350572388E-9   0.1071152303193919
3.870206389828286E-4      3.870206389828286E-4     1.911573959809069E-4     -1.283480024702079E-10   -1.283480024702079E-10   -2.037748040644176E-9    0.10711522477190905
3.291813832039503E-4      3.291813832039503E-4     2.3980388430414529E-4    -1.266471858512863E-10   -1.266471858512863E-10   -2.0963026596135116E-9   0.10711525444368929
2.370769083114988E-4      0                        4.1387963931879156E-4    -5.662974905599034E-11   0                        -2.2982502196966784E-9   0.1071153809218784
1.9948113336487827E-4     0                        5.0E-4                   5.912825126305004E-11    -1.3869448298081145E-14  -2.356713099931568E-9    0.10711546217419268
1.809673196007483E-4      8.16596372046745E-5      4.380738440731927E-4     3.768287714883573E-12    1.5196605726991965E-11   -2.377219580618395E-9    0.10711540845036265
1.7376125622167683E-4     7.502908567932113E-5     5.0E-4                   6.862800829193224E-11    4.12407764672785E-11     -2.3883321893630575E-9   0.10711547122469954
1.42415929732039E-4       1.42415929732039E-4      5.000000000000001E-4     5.886494384995472E-11    5.887601876244217E-11    -2.3506894978178584E-9   0.10711545945537661
2.978060938165547E-4      1.6171741380635593E-4    -5.0E-4                  6.250281538186686E-11    -2.5021519888428622E-11  -1.9002797245830686E-9   0.10711465949731586
3.52963610574813E-4       7.480698313072329E-5     -4.267743514863991E-4    2.0906863321895413E-10   -9.123776445000522E-12   -1.95659143878869E-9     0.107114686468788
3.076784222230706E-4      7.018822176048389E-5     -4.5086435305001727E-4   1.1755242986862406E-10   -1.1683078545548092E-11  -2.0449691513651127E-9   0.10711467198100214
2.5545388001266527E-4     7.211197815304706E-5     -5.0E-4                  -5.5220224747265935E-12  -2.90580590734206E-11    -2.141812895395948E-9    0.10711463045621931
2.996540889099197E-4      0                        -5.0E-4                  5.480689494342034E-11    9.708738016891546E-15    -2.0281141012910854E-9   0.10711464071195038
2.605061778198633E-4      1.309286438381553E-4     -4.4037989839895947E-4   6.437720093289104E-11    -7.798450358963825E-12   -2.129707872833247E-9    0.1071146782556545
2.1393274378563227E-4     2.1393274378563227E-4    -5.0E-4                  -1.5228534781615303E-11  -1.5276002971736105E-11  -2.0185979078550314E-9   0.10711465166398103